 TITLE="Rslt0031"
 VARIABLES = "x","y","rho","vx","vy","Pre"
 ZONE I=         320  J=          80  F=POINT
               0.00625000               0.00625000               7.87025591              -0.28891958               0.00017793               1.87987501
               0.01875000               0.00625000               7.87404874              -0.28917106               0.00012022               1.88140074
               0.03125000               0.00625000               7.88028870              -0.28963006               0.00006168               1.88369000
               0.04375000               0.00625000               7.88731609              -0.29030882               0.00004530               1.88633059
               0.05625000               0.00625000               7.89119164              -0.29080936               0.00007320               1.88792953
               0.06875000               0.00625000               7.88964071              -0.29096921               0.00014011               1.88778211
               0.08125000               0.00625000               7.88225733              -0.29082773               0.00021060               1.88575148
               0.09375000               0.00625000               7.87103982              -0.29061843               0.00027882               1.88247767
               0.10625000               0.00625000               7.85918305              -0.29051188               0.00035473               1.87895831
               0.11875000               0.00625000               7.84960929              -0.29060677               0.00045261               1.87615757
               0.13125000               0.00625000               7.84260658              -0.29089967               0.00055988               1.87428857
               0.14375000               0.00625000               7.83484306              -0.29125813               0.00064706               1.87238084
               0.15625000               0.00625000               7.82399856              -0.29159850               0.00068757               1.86966781
               0.16875000               0.00625000               7.81031492              -0.29187073               0.00069869               1.86602295
               0.18125000               0.00625000               7.79915224              -0.29225730               0.00070358               1.86280719
               0.19375000               0.00625000               7.79208353              -0.29280112               0.00067673               1.86046923
               0.20625000               0.00625000               7.78645626              -0.29340559               0.00046014               1.85894615
               0.21875000               0.00625000               7.55802402              -0.29394279              -0.00006061               1.85939291
               0.23125000               0.00625000               6.60094440              -0.29434982              -0.00065524               1.86334988
               0.24375000               0.00625000               4.91269129              -0.29452575              -0.00047405               1.86905628
               0.25625000               0.00625000               3.03069609              -0.29628629               0.00128087               1.87293114
               0.26875000               0.00625000               1.80103887              -0.30146498               0.00200912               1.87556863
               0.28125000               0.00625000               1.56540646              -0.30573360               0.00056027               1.87746296
               0.29375000               0.00625000               1.56640527              -0.30693351              -0.00068859               1.87959793
               0.30625000               0.00625000               1.56645328              -0.30710037              -0.00061916               1.88068214
               0.31875000               0.00625000               1.56573603              -0.30721928               0.00010731               1.88188204
               0.33125000               0.00625000               1.56520428              -0.30769249               0.00064878               1.88303426
               0.34375000               0.00625000               1.56541509              -0.30837004               0.00067810               1.88374580
               0.35625000               0.00625000               1.56540184              -0.30892606               0.00023439               1.88370542
               0.36875000               0.00625000               1.56524761              -0.30915523              -0.00024514               1.88340528
               0.38125000               0.00625000               1.56509823              -0.30905085              -0.00038985               1.88314935
               0.39375000               0.00625000               1.56492887              -0.30895066              -0.00002426               1.88290607
               0.40625000               0.00625000               1.56462756              -0.30908655               0.00058541               1.88245254
               0.41875000               0.00625000               1.56430624              -0.30961767               0.00107713               1.88201550
               0.43125000               0.00625000               1.56391671              -0.31039814               0.00128149               1.88181251
               0.44375000               0.00625000               1.56318110              -0.31134546               0.00121684               1.88182073
               0.45625000               0.00625000               1.56208032              -0.31247548               0.00092867               1.88190444
               0.46875000               0.00625000               1.56129968              -0.31380859               0.00059832               1.88208992
               0.48125000               0.00625000               1.56185861              -0.31526225               0.00045690               1.88256389
               0.49375000               0.00625000               1.56386490              -0.31662267               0.00060181               1.88343388
               0.50625000               0.00625000               1.56594670              -0.31781147               0.00080221               1.88453834
               0.51875000               0.00625000               1.56692784              -0.31889663               0.00079000               1.88551190
               0.53125000               0.00625000               1.56721322              -0.31992214               0.00062319               1.88600875
               0.54375000               0.00625000               1.56725152              -0.32089688               0.00052200               1.88612117
               0.55625000               0.00625000               1.56724382              -0.32182634               0.00060839               1.88609947
               0.56875000               0.00625000               1.56718763              -0.32274210               0.00082711               1.88598141
               0.58125000               0.00625000               1.56699085              -0.32360332               0.00105034               1.88563331
               0.59375000               0.00625000               1.56669219              -0.32432382               0.00119181               1.88511791
               0.60625000               0.00625000               1.56634471              -0.32489766               0.00118826               1.88453249
               0.61875000               0.00625000               1.56592221              -0.32544811               0.00104519               1.88381618
               0.63125000               0.00625000               1.56546271              -0.32615418               0.00087270               1.88302948
               0.64375000               0.00625000               1.56510402              -0.32707121               0.00077363               1.88241962
               0.65625000               0.00625000               1.56480876              -0.32807039               0.00078940               1.88192486
               0.66875000               0.00625000               1.56437459              -0.32900791               0.00087832               1.88118461
               0.68125000               0.00625000               1.56378838              -0.32992170               0.00096148               1.88018101
               0.69375000               0.00625000               1.56326755              -0.33097751               0.00100171               1.87928692
               0.70625000               0.00625000               1.56284323              -0.33225134               0.00106146               1.87855795
               0.71875000               0.00625000               1.56230971              -0.33367622               0.00117211               1.87764582
               0.73125000               0.00625000               1.56162055              -0.33514892               0.00125986               1.87648063
               0.74375000               0.00625000               1.56099370              -0.33660976               0.00122271               1.87543254
               0.75625000               0.00625000               1.56048353              -0.33811180               0.00107903               1.87460139
               0.76875000               0.00625000               1.55994898              -0.33979726               0.00095278               1.87372854
               0.78125000               0.00625000               1.55936263              -0.34165549               0.00092724               1.87275262
               0.79375000               0.00625000               1.55892902              -0.34349620               0.00093984               1.87202407
               0.80625000               0.00625000               1.55873002              -0.34523781               0.00086690               1.87167852
               0.81875000               0.00625000               1.55866328              -0.34698660               0.00070013               1.87155483
               0.83125000               0.00625000               1.55874167              -0.34874350               0.00053562               1.87168093
               0.84375000               0.00625000               1.55905935              -0.35034823               0.00043030               1.87221014
               0.85625000               0.00625000               1.55961275              -0.35168529               0.00034717               1.87314380
               0.86875000               0.00625000               1.56028500              -0.35274907               0.00022787               1.87428645
               0.88125000               0.00625000               1.56099459              -0.35355548               0.00008500               1.87549306
               0.89375000               0.00625000               1.56172308              -0.35408981              -0.00003939               1.87673166
               0.90625000               0.00625000               1.56246281              -0.35434385              -0.00012666               1.87798646
               0.91875000               0.00625000               1.56316453              -0.35432047              -0.00020263               1.87917223
               0.93125000               0.00625000               1.56375071              -0.35403948              -0.00029525               1.88015926
               0.94375000               0.00625000               1.56427090              -0.35347829              -0.00040636               1.88103196
               0.95625000               0.00625000               1.56481025              -0.35254682              -0.00051953               1.88194178
               0.96875000               0.00625000               1.56530456              -0.35131182              -0.00062052               1.88277543
               0.98125000               0.00625000               1.56552952              -0.34997810              -0.00069265               1.88315476
               0.99375000               0.00625000               1.56542911              -0.34862517              -0.00074218               1.88298569
               1.00625000               0.00625000               1.56528534              -0.34710395              -0.00078588               1.88274072
               1.01875000               0.00625000               1.56533124              -0.34526196              -0.00082752               1.88281601
               1.03125000               0.00625000               1.56540273              -0.34322714              -0.00086571               1.88293350
               1.04375000               0.00625000               1.56527463              -0.34117119              -0.00088173               1.88271720
               1.05625000               0.00625000               1.56506537              -0.33906179              -0.00086453               1.88236813
               1.06875000               0.00625000               1.56495743              -0.33678926              -0.00081272               1.88219552
               1.08125000               0.00625000               1.56497889              -0.33436673              -0.00074433               1.88224316
               1.09375000               0.00625000               1.56503078              -0.33188018              -0.00069698               1.88234410
               1.10625000               0.00625000               1.56507325              -0.32939391              -0.00066792               1.88242740
               1.11875000               0.00625000               1.56512257              -0.32693367              -0.00060899               1.88251968
               1.13125000               0.00625000               1.56518865              -0.32453815              -0.00051198               1.88263783
               1.14375000               0.00625000               1.56528907              -0.32221914              -0.00043518               1.88281032
               1.15625000               0.00625000               1.56539089              -0.31998594              -0.00044440               1.88298296
               1.16875000               0.00625000               1.56541205              -0.31787533              -0.00050465               1.88301667
               1.18125000               0.00625000               1.56529921              -0.31590465              -0.00052238               1.88282115
               1.19375000               0.00625000               1.56510762              -0.31403274              -0.00044481               1.88249271
               1.20625000               0.00625000               1.56487861              -0.31227819              -0.00029139               1.88210562
               1.21875000               0.00625000               1.56465444              -0.31065274              -0.00012383               1.88173287
               1.23125000               0.00625000               1.56455932              -0.30905737              -0.00000208               1.88158095
               1.24375000               0.00625000               1.56462230              -0.30744295               0.00006864               1.88169705
               1.25625000               0.00625000               1.56477822              -0.30584383               0.00011750               1.88196835
               1.26875000               0.00625000               1.56500486              -0.30427047               0.00017254               1.88235654
               1.28125000               0.00625000               1.56532192              -0.30271386               0.00021556               1.88289522
               1.29375000               0.00625000               1.56571205              -0.30117941               0.00023265               1.88355234
               1.30625000               0.00625000               1.56620671              -0.29967205               0.00020220               1.88437857
               1.31875000               0.00625000               1.56676875              -0.29821767               0.00013943               1.88531549
               1.33125000               0.00625000               1.56730392              -0.29686283               0.00011526               1.88621106
               1.34375000               0.00625000               1.56777416              -0.29563462               0.00014510               1.88700499
               1.35625000               0.00625000               1.56821751              -0.29450772               0.00017701               1.88776183
               1.36875000               0.00625000               1.56861697              -0.29344919               0.00022189               1.88844694
               1.38125000               0.00625000               1.56879627              -0.29260808               0.00026904               1.88875547
               1.39375000               0.00625000               1.56859419              -0.29208392               0.00026484               1.88841465
               1.40625000               0.00625000               1.56812136              -0.29176711               0.00019290               1.88761654
               1.41875000               0.00625000               1.56758983              -0.29149238               0.00013940               1.88672252
               1.43125000               0.00625000               1.56716860              -0.29112778               0.00016763               1.88601769
               1.44375000               0.00625000               1.56689948              -0.29067138               0.00020880               1.88556861
               1.45625000               0.00625000               1.56671234              -0.29018913               0.00019648               1.88525824
               1.46875000               0.00625000               1.56666699              -0.28968753               0.00016696               1.88518561
               1.48125000               0.00625000               1.56685261              -0.28913181               0.00019782               1.88549662
               1.49375000               0.00625000               1.56718517              -0.28853558               0.00027379               1.88605580
               1.50625000               0.00625000               1.56749024              -0.28797822               0.00033099               1.88657113
               1.51875000               0.00625000               1.56772251              -0.28748885               0.00034408               1.88696333
               1.53125000               0.00625000               1.56793979              -0.28703822               0.00032894               1.88732834
               1.54375000               0.00625000               1.56811747              -0.28663173               0.00029039               1.88762163
               1.55625000               0.00625000               1.56827918              -0.28621370               0.00023476               1.88789274
               1.56875000               0.00625000               1.56855312              -0.28565218               0.00018045               1.88836851
               1.58125000               0.00625000               1.56895043              -0.28494977               0.00017461               1.88906793
               1.59375000               0.00625000               1.56934523              -0.28425114               0.00019416               1.88976317
               1.60625000               0.00625000               1.56963663              -0.28364234               0.00013882               1.89026922
               1.61875000               0.00625000               1.56976329              -0.28316082               0.00000951               1.89048096
               1.63125000               0.00625000               1.56967519              -0.28284766              -0.00010140               1.89032077
               1.64375000               0.00625000               1.56936790              -0.28270564              -0.00013461               1.88979325
               1.65625000               0.00625000               1.56895288              -0.28265452              -0.00010335               1.88909445
               1.66875000               0.00625000               1.56855032              -0.28262208              -0.00006080               1.88842039
               1.68125000               0.00625000               1.56808864              -0.28262931              -0.00008238               1.88764625
               1.69375000               0.00625000               1.56739707              -0.28279797              -0.00017657               1.88648333
               1.70625000               0.00625000               1.56646549              -0.28315070              -0.00027085               1.88491508
               1.71875000               0.00625000               1.56548624              -0.28358066              -0.00028209               1.88326782
               1.73125000               0.00625000               1.56463719              -0.28397505              -0.00023137               1.88184100
               1.74375000               0.00625000               1.56386978              -0.28433629              -0.00019456               1.88055313
               1.75625000               0.00625000               1.56301118              -0.28481961              -0.00018829               1.87911227
               1.76875000               0.00625000               1.56198459              -0.28548498              -0.00012816               1.87738984
               1.78125000               0.00625000               1.56089535              -0.28620782               0.00001169               1.87556243
               1.79375000               0.00625000               1.55995423              -0.28679589               0.00010304               1.87398114
               1.80625000               0.00625000               1.55927268              -0.28719864               0.00010097               1.87283156
               1.81875000               0.00625000               1.55867402              -0.28757863               0.00008068               1.87181913
               1.83125000               0.00625000               1.55789195              -0.28813551               0.00007942               1.87050017
               1.84375000               0.00625000               1.55694428              -0.28883141               0.00007673               1.86890511
               1.85625000               0.00625000               1.55604152              -0.28948072               0.00004240               1.86738837
               1.86875000               0.00625000               1.55526501              -0.29001129              -0.00002881               1.86608263
               1.88125000               0.00625000               1.55450372              -0.29051955              -0.00012509               1.86479698
               1.89375000               0.00625000               1.55363847              -0.29108059              -0.00021736               1.86332778
               1.90625000               0.00625000               1.55271173              -0.29161229              -0.00027947               1.86174779
               1.91875000               0.00625000               1.55184068              -0.29196634              -0.00031763               1.86026538
               1.93125000               0.00625000               1.55113082              -0.29202731              -0.00036392               1.85908083
               1.94375000               0.00625000               1.55058766              -0.29174384              -0.00043321               1.85824670
               1.95625000               0.00625000               1.55014717              -0.29118520              -0.00048312               1.85770169
               1.96875000               0.00625000               1.54970020              -0.29053727              -0.00046643               1.85728521
               1.98125000               0.00625000               1.54918137              -0.29000048              -0.00036982               1.85686028
               1.99375000               0.00625000               1.54864225              -0.28968973              -0.00022047               1.85642897
               2.00625000               0.00625000               1.54816378              -0.28961529              -0.00009066               1.85601569
               2.01875000               0.00625000               1.54782289              -0.28974142              -0.00003874               1.85566523
               2.03125000               0.00625000               1.54765232              -0.28993039              -0.00006592               1.85543352
               2.04375000               0.00625000               1.54762550              -0.28997614              -0.00016107               1.85538679
               2.05625000               0.00625000               1.54765839              -0.28976749              -0.00027478               1.85545443
               2.06875000               0.00625000               1.54768383              -0.28930019              -0.00035048               1.85556856
               2.08125000               0.00625000               1.54772982              -0.28864873              -0.00033588               1.85576981
               2.09375000               0.00625000               1.54785845              -0.28788888              -0.00024309               1.85615293
               2.10625000               0.00625000               1.54811310              -0.28707806              -0.00014459               1.85677473
               2.11875000               0.00625000               1.54849345              -0.28627353              -0.00007973               1.85759956
               2.13125000               0.00625000               1.54897486              -0.28552969              -0.00006517               1.85854841
               2.14375000               0.00625000               1.54952009              -0.28484877              -0.00008429               1.85953678
               2.15625000               0.00625000               1.55010195              -0.28421592              -0.00011126               1.86052677
               2.16875000               0.00625000               1.55065487              -0.28364517              -0.00009429               1.86145574
               2.18125000               0.00625000               1.55110287              -0.28316243              -0.00001022               1.86220874
               2.19375000               0.00625000               1.55138501              -0.28280064               0.00002725               1.86268147
               2.20625000               0.00625000               1.55150027              -0.28254686              -0.00005919               1.86286867
               2.21875000               0.00625000               1.55149588              -0.28232658              -0.00022289               1.86285313
               2.23125000               0.00625000               1.55144909              -0.28203230              -0.00032454               1.86277407
               2.24375000               0.00625000               1.55144761              -0.28159666              -0.00024720               1.86278276
               2.25625000               0.00625000               1.55158791              -0.28100896              -0.00003105               1.86304134
               2.26875000               0.00625000               1.55191897              -0.28031265               0.00012523               1.86362802
               2.28125000               0.00625000               1.55242431              -0.27960334               0.00014231               1.86450479
               2.29375000               0.00625000               1.55303643              -0.27895784               0.00008877               1.86554926
               2.30625000               0.00625000               1.55367168              -0.27838657               0.00005202               1.86661842
               2.31875000               0.00625000               1.55426930              -0.27787817               0.00007033               1.86761711
               2.33125000               0.00625000               1.55481092              -0.27742208               0.00013036               1.86852412
               2.34375000               0.00625000               1.55530781              -0.27702341               0.00018635               1.86936023
               2.35625000               0.00625000               1.55577360              -0.27667781               0.00019193               1.87014365
               2.36875000               0.00625000               1.55620925              -0.27636911               0.00012983               1.87087377
               2.38125000               0.00625000               1.55662321              -0.27608151               0.00005778               1.87156874
               2.39375000               0.00625000               1.55701761              -0.27583149               0.00005066               1.87223605
               2.40625000               0.00625000               1.55739239              -0.27563668               0.00011925               1.87287740
               2.41875000               0.00625000               1.55776078              -0.27545296               0.00021354               1.87351017
               2.43125000               0.00625000               1.55815804              -0.27520036               0.00025774               1.87418773
               2.44375000               0.00625000               1.55863352              -0.27483856               0.00021705               1.87499062
               2.45625000               0.00625000               1.55919724              -0.27438354               0.00014484               1.87594005